LAMMPS data file. CGCMM style. atom_style full generated by VMD/TopoTools v1.8 on Wed Mar 18 12:12:19 -0400 2026
 1356 atoms
 900 bonds
 455 angles
 0 dihedrals
 0 impropers
 4 atom types
 1 bond types
 3 angle types
 0 dihedral types
 0 improper types
 0.270500 25.270500  xlo xhi
 -0.334499 24.665501  ylo yhi
 -0.259999 24.740001  zlo zhi

# Pair Coeffs
#
# 1  Cl
# 2  H
# 3  Na
# 4  O

# Bond Coeffs
#
# 1  

# Angle Coeffs
#
# 1  1-HT-OT
# 2  HT-1-HT
# 3  HT-OT-HT

 Masses

 1 35.452999 # Cl
 2 1.007940 # H
 3 22.989771 # Na
 4 15.999400 # O

 Atoms # full

1 5 4 -0.834000 3.668000 10.082000 15.904000 # O TIP3
2 5 2 0.417000 3.224000 10.451000 15.101000 # H TIP3
3 5 2 0.417000 3.092000 10.379000 16.627001 # H TIP3
4 7 4 -0.834000 6.033000 4.876000 20.891001 # O TIP3
5 7 2 0.417000 6.078000 5.224000 21.798000 # H TIP3
6 7 2 0.417000 6.592000 4.088000 20.961000 # H TIP3
7 19 4 -0.834000 5.186000 16.695999 12.072000 # O TIP3
8 19 2 0.417000 6.083000 16.979000 11.816000 # H TIP3
9 19 2 0.417000 5.337000 15.832000 12.490000 # H TIP3
10 20 4 -0.834000 8.324000 13.811000 21.332001 # O TIP3
11 20 2 0.417000 8.633000 13.348000 22.112000 # H TIP3
12 20 2 0.417000 8.506000 13.116000 20.645000 # H TIP3
13 21 4 -0.834000 3.786000 16.318001 1.310000 # O TIP3
14 21 2 0.417000 3.781000 15.388000 1.196000 # H TIP3
15 21 2 0.417000 4.528000 16.580000 0.781000 # H TIP3
16 22 4 -0.834000 16.125999 14.701000 4.577000 # O TIP3
17 22 2 0.417000 16.070000 14.272000 3.726000 # H TIP3
18 22 2 0.417000 16.805000 15.454000 4.445000 # H TIP3
19 23 4 -0.834000 2.750000 8.844000 9.629000 # O TIP3
20 23 2 0.417000 2.110000 8.290000 9.998000 # H TIP3
21 23 2 0.417000 2.164000 9.245000 8.962000 # H TIP3
22 24 4 -0.834000 3.935000 16.195000 22.108999 # O TIP3
23 24 2 0.417000 4.870000 16.034000 21.985001 # H TIP3
24 24 2 0.417000 3.655000 15.367000 22.580999 # H TIP3
25 25 4 -0.834000 10.674000 8.909000 4.986000 # O TIP3
26 25 2 0.417000 10.998000 8.871000 5.932000 # H TIP3
27 25 2 0.417000 9.748000 9.270000 5.075000 # H TIP3
28 26 4 -0.834000 0.002000 5.667000 14.591000 # O TIP3
29 26 2 0.417000 0.483000 5.990000 13.830000 # H TIP3
30 26 2 0.417000 0.608000 5.781000 15.347000 # H TIP3
31 27 4 -0.834000 9.882000 9.156000 14.916000 # O TIP3
32 27 2 0.417000 9.574000 9.753000 15.597000 # H TIP3
33 27 2 0.417000 10.021000 8.264000 15.289000 # H TIP3
34 28 4 -0.834000 1.661000 6.681000 1.943000 # O TIP3
35 28 2 0.417000 1.943000 5.739000 1.981000 # H TIP3
36 28 2 0.417000 0.778000 6.599000 1.483000 # H TIP3
37 29 4 -0.834000 4.821000 20.603001 11.239000 # O TIP3
38 29 2 0.417000 5.466000 20.782000 11.963000 # H TIP3
39 29 2 0.417000 5.384000 20.914000 10.456000 # H TIP3
40 30 4 -0.834000 15.022000 20.855000 12.831000 # O TIP3
41 30 2 0.417000 14.222000 20.809000 13.292000 # H TIP3
42 30 2 0.417000 14.673000 21.056999 11.918000 # H TIP3
43 31 4 -0.834000 1.339000 3.782000 22.813999 # O TIP3
44 31 2 0.417000 0.839000 3.425000 22.087000 # H TIP3
45 31 2 0.417000 1.775000 3.077000 23.138000 # H TIP3
46 32 4 -0.834000 0.485000 15.137000 22.476000 # O TIP3
47 32 2 0.417000 0.644000 15.425000 23.349001 # H TIP3
48 32 2 0.417000 0.312000 15.961000 21.975000 # H TIP3
49 33 4 -0.834000 5.608000 23.917999 12.959000 # O TIP3
50 33 2 0.417000 4.840000 23.622000 12.545000 # H TIP3
51 33 2 0.417000 6.037000 24.336000 12.208000 # H TIP3
52 34 4 -0.834000 10.426000 7.604000 2.404000 # O TIP3
53 34 2 0.417000 10.761000 8.401000 1.994000 # H TIP3
54 34 2 0.417000 10.248000 7.889000 3.308000 # H TIP3
55 35 4 -0.834000 4.269000 22.752001 16.264999 # O TIP3
56 35 2 0.417000 4.149000 23.680000 15.888000 # H TIP3
57 35 2 0.417000 5.061000 22.796000 16.775999 # H TIP3
58 36 4 -0.834000 22.572001 6.242000 3.478000 # O TIP3
59 36 2 0.417000 21.705000 5.845000 3.830000 # H TIP3
60 36 2 0.417000 22.951000 5.659000 2.858000 # H TIP3
61 37 4 -0.834000 10.926000 5.365000 1.018000 # O TIP3
62 37 2 0.417000 11.138000 4.769000 1.754000 # H TIP3
63 37 2 0.417000 10.657000 6.212000 1.493000 # H TIP3
64 38 4 -0.834000 8.647000 4.314000 19.278000 # O TIP3
65 38 2 0.417000 7.964000 3.611000 19.326000 # H TIP3
66 38 2 0.417000 8.043000 5.064000 19.153000 # H TIP3
67 39 4 -0.834000 4.299000 17.774000 7.169000 # O TIP3
68 39 2 0.417000 3.303000 17.802999 7.322000 # H TIP3
69 39 2 0.417000 4.533000 18.754999 6.924000 # H TIP3
70 40 4 -0.834000 8.892000 12.977000 5.321000 # O TIP3
71 40 2 0.417000 8.119000 12.478000 5.443000 # H TIP3
72 40 2 0.417000 9.342000 12.557000 4.536000 # H TIP3
73 41 4 -0.834000 2.708000 20.969000 24.504000 # O TIP3
74 41 2 0.417000 2.589000 20.945000 23.556000 # H TIP3
75 41 2 0.417000 3.123000 21.834999 24.549000 # H TIP3
76 42 4 -0.834000 2.174000 18.468000 2.212000 # O TIP3
77 42 2 0.417000 2.632000 17.628000 2.203000 # H TIP3
78 42 2 0.417000 2.931000 19.120001 2.281000 # H TIP3
79 43 4 -0.834000 13.612000 17.680000 18.622000 # O TIP3
80 43 2 0.417000 13.744000 17.414000 19.507999 # H TIP3
81 43 2 0.417000 14.526000 17.830999 18.347000 # H TIP3
82 44 4 -0.834000 1.287000 24.132000 23.737000 # O TIP3
83 44 2 0.417000 1.235000 23.924000 24.731001 # H TIP3
84 44 2 0.417000 2.088000 24.709000 23.639000 # H TIP3
85 45 4 -0.834000 15.414000 6.569000 2.501000 # O TIP3
86 45 2 0.417000 16.224001 6.858000 2.128000 # H TIP3
87 45 2 0.417000 14.808000 6.700000 1.671000 # H TIP3
88 46 4 -0.834000 9.935000 12.876000 10.191000 # O TIP3
89 46 2 0.417000 9.709000 12.098000 9.634000 # H TIP3
90 46 2 0.417000 9.472000 12.766000 11.018000 # H TIP3
91 47 4 -0.834000 7.060000 2.074000 19.830000 # O TIP3
92 47 2 0.417000 7.650000 1.619000 20.528000 # H TIP3
93 47 2 0.417000 6.148000 1.796000 20.035000 # H TIP3
94 48 4 -0.834000 13.891000 1.919000 2.992000 # O TIP3
95 48 2 0.417000 14.198000 2.681000 3.422000 # H TIP3
96 48 2 0.417000 13.212000 1.577000 3.578000 # H TIP3
97 49 4 -0.834000 8.823000 10.581000 8.827000 # O TIP3
98 49 2 0.417000 8.183000 10.753000 8.148000 # H TIP3
99 49 2 0.417000 8.389000 10.061000 9.534000 # H TIP3
100 50 4 -0.834000 9.078000 11.967000 12.734000 # O TIP3
101 50 2 0.417000 8.228000 11.561000 12.993000 # H TIP3
102 50 2 0.417000 9.512000 12.194000 13.560000 # H TIP3
103 51 4 -0.834000 10.282000 0.640000 2.053000 # O TIP3
104 51 2 0.417000 10.367000 0.959000 3.016000 # H TIP3
105 51 2 0.417000 9.743000 1.323000 1.667000 # H TIP3
106 52 4 -0.834000 4.618000 8.125000 7.777000 # O TIP3
107 52 2 0.417000 5.405000 7.919000 8.314000 # H TIP3
108 52 2 0.417000 4.002000 8.458000 8.422000 # H TIP3
109 53 4 -0.834000 3.403000 4.687000 9.815000 # O TIP3
110 53 2 0.417000 3.109000 5.272000 9.097000 # H TIP3
111 53 2 0.417000 3.817000 3.973000 9.327000 # H TIP3
112 54 4 -0.834000 3.276000 7.465000 19.325001 # O TIP3
113 54 2 0.417000 2.772000 6.991000 19.964001 # H TIP3
114 54 2 0.417000 3.604000 8.288000 19.753000 # H TIP3
115 55 4 -0.834000 3.119000 10.325000 13.158000 # O TIP3
116 55 2 0.417000 3.598000 10.900000 12.512000 # H TIP3
117 55 2 0.417000 3.440000 9.430000 12.962000 # H TIP3
118 56 4 -0.834000 2.378000 5.806000 16.253000 # O TIP3
119 56 2 0.417000 2.157000 6.161000 17.099001 # H TIP3
120 56 2 0.417000 3.301000 6.032000 16.125999 # H TIP3
121 57 4 -0.834000 6.382000 22.271000 2.319000 # O TIP3
122 57 2 0.417000 5.550000 22.035000 1.847000 # H TIP3
123 57 2 0.417000 6.859000 21.472000 2.192000 # H TIP3
124 58 4 -0.834000 4.017000 3.905000 19.417999 # O TIP3
125 58 2 0.417000 3.142000 4.042000 19.132000 # H TIP3
126 58 2 0.417000 4.582000 4.727000 19.295000 # H TIP3
127 59 4 -0.834000 2.344000 20.472000 21.631001 # O TIP3
128 59 2 0.417000 2.932000 20.820999 20.945000 # H TIP3
129 59 2 0.417000 1.467000 20.548000 21.138000 # H TIP3
130 60 4 -0.834000 20.613001 13.616000 11.066000 # O TIP3
131 60 2 0.417000 20.739000 13.959000 10.218000 # H TIP3
132 60 2 0.417000 19.618999 13.816000 11.250000 # H TIP3
133 61 4 -0.834000 1.787000 9.518000 24.514999 # O TIP3
134 61 2 0.417000 2.132000 9.575000 23.646000 # H TIP3
135 61 2 0.417000 1.860000 10.406000 24.787001 # H TIP3
136 62 4 -0.834000 14.526000 10.532000 20.136999 # O TIP3
137 62 2 0.417000 14.162000 9.733000 20.503000 # H TIP3
138 62 2 0.417000 14.466000 10.420000 19.194000 # H TIP3
139 63 4 -0.834000 5.573000 14.804000 19.090000 # O TIP3
140 63 2 0.417000 5.959000 15.339000 19.808001 # H TIP3
141 63 2 0.417000 5.869000 15.413000 18.330999 # H TIP3
142 64 4 -0.834000 16.283001 7.354000 22.781000 # O TIP3
143 64 2 0.417000 15.640000 8.058000 22.448999 # H TIP3
144 64 2 0.417000 15.973000 6.560000 22.379000 # H TIP3
145 65 4 -0.834000 22.872000 18.441000 16.788000 # O TIP3
146 65 2 0.417000 22.201000 17.864000 16.379000 # H TIP3
147 65 2 0.417000 22.334999 18.981001 17.424999 # H TIP3
148 66 4 -0.834000 5.458000 13.097000 4.589000 # O TIP3
149 66 2 0.417000 5.673000 13.019000 3.612000 # H TIP3
150 66 2 0.417000 4.899000 13.894000 4.657000 # H TIP3
151 67 4 -0.834000 4.552000 1.370000 20.330000 # O TIP3
152 67 2 0.417000 4.274000 2.194000 19.952999 # H TIP3
153 67 2 0.417000 4.235000 0.801000 19.570999 # H TIP3
154 68 4 -0.834000 5.160000 13.744000 7.954000 # O TIP3
155 68 2 0.417000 6.048000 13.422000 8.207000 # H TIP3
156 68 2 0.417000 5.008000 14.493000 8.528000 # H TIP3
157 69 4 -0.834000 10.390000 6.386000 18.827999 # O TIP3
158 69 2 0.417000 10.688000 6.484000 19.731001 # H TIP3
159 69 2 0.417000 9.844000 5.589000 18.921000 # H TIP3
160 70 4 -0.834000 1.678000 21.941999 1.035000 # O TIP3
161 70 2 0.417000 1.272000 21.280001 1.592000 # H TIP3
162 70 2 0.417000 1.498000 22.809000 1.493000 # H TIP3
163 71 4 -0.834000 9.630000 21.547001 3.000000 # O TIP3
164 71 2 0.417000 9.601000 22.471001 2.643000 # H TIP3
165 71 2 0.417000 9.287000 20.954000 2.312000 # H TIP3
166 72 4 -0.834000 2.344000 10.571000 2.624000 # O TIP3
167 72 2 0.417000 2.122000 10.753000 3.553000 # H TIP3
168 72 2 0.417000 2.947000 9.791000 2.617000 # H TIP3
169 73 4 -0.834000 0.823000 23.667999 2.888000 # O TIP3
170 73 2 0.417000 1.636000 23.316000 3.340000 # H TIP3
171 73 2 0.417000 0.253000 23.978001 3.640000 # H TIP3
172 74 4 -0.834000 2.710000 6.185000 7.540000 # O TIP3
173 74 2 0.417000 2.467000 6.236000 6.561000 # H TIP3
174 74 2 0.417000 3.410000 6.855000 7.580000 # H TIP3
175 75 4 -0.834000 6.911000 19.458000 17.334999 # O TIP3
176 75 2 0.417000 7.517000 20.118000 16.957001 # H TIP3
177 75 2 0.417000 6.315000 19.136000 16.587999 # H TIP3
178 76 4 -0.834000 16.191999 22.403000 3.782000 # O TIP3
179 76 2 0.417000 16.363001 22.881001 4.622000 # H TIP3
180 76 2 0.417000 16.427000 23.065001 3.086000 # H TIP3
181 77 4 -0.834000 13.540000 22.219999 2.748000 # O TIP3
182 77 2 0.417000 12.965000 22.475000 3.462000 # H TIP3
183 77 2 0.417000 14.428000 22.403999 3.074000 # H TIP3
184 78 4 -0.834000 8.181000 23.465000 7.637000 # O TIP3
185 78 2 0.417000 9.007000 23.937000 7.703000 # H TIP3
186 78 2 0.417000 7.517000 24.117001 7.312000 # H TIP3
187 79 4 -0.834000 10.929000 14.750000 5.718000 # O TIP3
188 79 2 0.417000 10.050000 14.541000 5.408000 # H TIP3
189 79 2 0.417000 11.401000 13.879000 5.717000 # H TIP3
190 80 4 -0.834000 23.330999 21.618999 18.069000 # O TIP3
191 80 2 0.417000 23.136999 22.516001 18.455999 # H TIP3
192 80 2 0.417000 22.663000 20.985001 18.450001 # H TIP3
193 81 4 -0.834000 16.507000 17.170000 21.006001 # O TIP3
194 81 2 0.417000 17.226000 17.006001 20.295000 # H TIP3
195 81 2 0.417000 16.030001 16.297001 21.082001 # H TIP3
196 82 4 -0.834000 0.747000 4.469000 10.579000 # O TIP3
197 82 2 0.417000 0.426000 3.568000 10.339000 # H TIP3
198 82 2 0.417000 1.505000 4.585000 9.990000 # H TIP3
199 83 4 -0.834000 5.356000 5.388000 16.046000 # O TIP3
200 83 2 0.417000 5.884000 6.064000 16.461000 # H TIP3
201 83 2 0.417000 5.592000 4.622000 16.537001 # H TIP3
202 84 4 -0.834000 10.704000 6.721000 15.883000 # O TIP3
203 84 2 0.417000 10.901000 6.912000 16.836000 # H TIP3
204 84 2 0.417000 10.127000 5.972000 15.998000 # H TIP3
205 85 4 -0.834000 7.027000 2.224000 13.411000 # O TIP3
206 85 2 0.417000 6.185000 2.801000 13.535000 # H TIP3
207 85 2 0.417000 6.692000 1.403000 13.742000 # H TIP3
208 86 4 -0.834000 17.812000 5.771000 5.876000 # O TIP3
209 86 2 0.417000 17.219999 6.316000 5.380000 # H TIP3
210 86 2 0.417000 17.551001 4.869000 5.669000 # H TIP3
211 87 4 -0.834000 4.028000 7.699000 12.776000 # O TIP3
212 87 2 0.417000 4.577000 7.193000 12.138000 # H TIP3
213 87 2 0.417000 3.171000 7.320000 12.544000 # H TIP3
214 88 4 -0.834000 22.132999 2.886000 19.843000 # O TIP3
215 88 2 0.417000 22.929001 2.596000 20.261999 # H TIP3
216 88 2 0.417000 21.486000 2.828000 20.561001 # H TIP3
217 89 4 -0.834000 12.493000 9.451000 2.215000 # O TIP3
218 89 2 0.417000 12.908000 9.840000 2.987000 # H TIP3
219 89 2 0.417000 12.982000 8.641000 2.039000 # H TIP3
220 90 4 -0.834000 11.177000 9.610000 7.928000 # O TIP3
221 90 2 0.417000 10.443000 10.172000 8.053000 # H TIP3
222 90 2 0.417000 10.866000 8.788000 8.298000 # H TIP3
223 91 4 -0.834000 1.838000 3.206000 15.398000 # O TIP3
224 91 2 0.417000 2.201000 4.081000 15.545000 # H TIP3
225 91 2 0.417000 2.117000 2.999000 14.422000 # H TIP3
226 92 4 -0.834000 16.132999 12.593000 16.908001 # O TIP3
227 92 2 0.417000 15.352000 12.769000 16.391001 # H TIP3
228 92 2 0.417000 15.887000 11.876000 17.511000 # H TIP3
229 93 4 -0.834000 1.899000 11.624000 17.893000 # O TIP3
230 93 2 0.417000 1.139000 11.678000 17.305000 # H TIP3
231 93 2 0.417000 2.258000 12.535000 17.855000 # H TIP3
232 94 4 -0.834000 9.220000 13.904000 17.340000 # O TIP3
233 94 2 0.417000 10.062000 14.198000 17.738001 # H TIP3
234 94 2 0.417000 9.394000 12.999000 17.101999 # H TIP3
235 95 4 -0.834000 3.458000 9.868000 22.419001 # O TIP3
236 95 2 0.417000 4.398000 10.016000 22.653999 # H TIP3
237 95 2 0.417000 3.448000 10.189000 21.495001 # H TIP3
238 96 4 -0.834000 18.441000 16.134001 3.840000 # O TIP3
239 96 2 0.417000 18.610001 16.488001 2.968000 # H TIP3
240 96 2 0.417000 19.113001 15.407000 3.961000 # H TIP3
241 97 4 -0.834000 15.430000 3.274000 7.407000 # O TIP3
242 97 2 0.417000 15.458000 2.741000 8.157000 # H TIP3
243 97 2 0.417000 15.933000 2.740000 6.770000 # H TIP3
244 98 4 -0.834000 13.134000 4.535000 6.559000 # O TIP3
245 98 2 0.417000 12.434000 3.932000 6.938000 # H TIP3
246 98 2 0.417000 13.959000 4.162000 6.965000 # H TIP3
247 99 4 -0.834000 10.295000 14.066000 14.320000 # O TIP3
248 99 2 0.417000 10.592000 14.067000 15.226000 # H TIP3
249 99 2 0.417000 9.322000 14.226000 14.350000 # H TIP3
250 100 4 -0.834000 16.007999 17.797001 11.410000 # O TIP3
251 100 2 0.417000 16.695000 17.702000 10.684000 # H TIP3
252 100 2 0.417000 15.186000 17.521000 10.942000 # H TIP3
253 101 4 -0.834000 15.398000 1.552000 18.246000 # O TIP3
254 101 2 0.417000 16.016001 1.951000 17.566000 # H TIP3
255 101 2 0.417000 14.574000 2.011000 18.108999 # H TIP3
256 102 4 -0.834000 7.830000 19.750999 1.995000 # O TIP3
257 102 2 0.417000 7.257000 19.870001 1.247000 # H TIP3
258 102 2 0.417000 8.329000 18.923000 1.885000 # H TIP3
259 103 4 -0.834000 15.027000 11.249000 9.806000 # O TIP3
260 103 2 0.417000 15.636000 10.953000 9.104000 # H TIP3
261 103 2 0.417000 14.929000 12.194000 9.545000 # H TIP3
262 104 4 -0.834000 19.530001 19.813000 24.413000 # O TIP3
263 104 2 0.417000 20.399000 20.250999 24.330999 # H TIP3
264 104 2 0.417000 19.754999 18.875999 24.417999 # H TIP3
265 105 4 -0.834000 10.274000 11.448000 20.959000 # O TIP3
266 105 2 0.417000 10.893000 11.073000 21.653999 # H TIP3
267 105 2 0.417000 10.344000 10.891000 20.238001 # H TIP3
268 106 4 -0.834000 11.473000 6.075000 21.702000 # O TIP3
269 106 2 0.417000 12.046000 5.667000 22.431000 # H TIP3
270 106 2 0.417000 10.554000 5.939000 22.100000 # H TIP3
271 107 4 -0.834000 21.007999 3.270000 15.173000 # O TIP3
272 107 2 0.417000 20.389999 4.036000 15.084000 # H TIP3
273 107 2 0.417000 21.768000 3.592000 14.749000 # H TIP3
274 108 4 -0.834000 6.800000 16.659000 17.184000 # O TIP3
275 108 2 0.417000 7.143000 16.649000 16.327000 # H TIP3
276 108 2 0.417000 7.109000 17.502001 17.568001 # H TIP3
277 109 4 -0.834000 5.780000 17.516001 24.024000 # O TIP3
278 109 2 0.417000 5.106000 17.326000 23.341000 # H TIP3
279 109 2 0.417000 5.750000 18.485001 24.094000 # H TIP3
280 110 4 -0.834000 14.603000 18.110001 3.213000 # O TIP3
281 110 2 0.417000 14.275000 17.655001 3.963000 # H TIP3
282 110 2 0.417000 13.842000 18.606001 2.878000 # H TIP3
283 111 4 -0.834000 4.753000 20.139000 5.475000 # O TIP3
284 111 2 0.417000 4.769000 21.052999 5.846000 # H TIP3
285 111 2 0.417000 5.663000 20.031000 5.201000 # H TIP3
286 112 4 -0.834000 1.615000 17.355000 14.355000 # O TIP3
287 112 2 0.417000 1.225000 16.480000 14.420000 # H TIP3
288 112 2 0.417000 0.859000 17.983999 14.051000 # H TIP3
289 113 4 -0.834000 11.087000 15.787000 20.150000 # O TIP3
290 113 2 0.417000 11.221000 14.877000 19.698000 # H TIP3
291 113 2 0.417000 11.936000 15.940000 20.591000 # H TIP3
292 114 4 -0.834000 22.577999 23.665001 23.229000 # O TIP3
293 114 2 0.417000 23.396000 23.499001 22.733999 # H TIP3
294 114 2 0.417000 21.920000 23.775000 22.561001 # H TIP3
295 115 4 -0.834000 9.784000 18.059999 16.438999 # O TIP3
296 115 2 0.417000 10.576000 18.166000 15.922000 # H TIP3
297 115 2 0.417000 9.941000 18.584000 17.233999 # H TIP3
298 116 4 -0.834000 2.369000 19.620001 10.838000 # O TIP3
299 116 2 0.417000 2.051000 19.424999 11.701000 # H TIP3
300 116 2 0.417000 3.347000 19.716999 10.923000 # H TIP3
301 117 4 -0.834000 15.158000 15.218000 1.453000 # O TIP3
302 117 2 0.417000 15.286000 16.122999 1.160000 # H TIP3
303 117 2 0.417000 14.175000 15.219000 1.587000 # H TIP3
304 118 4 -0.834000 7.929000 9.601000 4.322000 # O TIP3
305 118 2 0.417000 7.364000 10.340000 3.912000 # H TIP3
306 118 2 0.417000 7.318000 9.011000 4.820000 # H TIP3
307 119 4 -0.834000 11.585000 23.121000 19.455000 # O TIP3
308 119 2 0.417000 12.413000 23.205000 19.982000 # H TIP3
309 119 2 0.417000 10.816000 23.266001 20.094999 # H TIP3
310 120 4 -0.834000 21.371000 17.885000 5.875000 # O TIP3
311 120 2 0.417000 20.731001 17.190001 6.201000 # H TIP3
312 120 2 0.417000 22.157000 17.771000 6.379000 # H TIP3
313 121 4 -0.834000 21.052000 14.490000 4.292000 # O TIP3
314 121 2 0.417000 20.664000 14.025000 5.009000 # H TIP3
315 121 2 0.417000 21.791000 15.006000 4.747000 # H TIP3
316 122 4 -0.834000 8.788000 3.294000 24.627001 # O TIP3
317 122 2 0.417000 7.874000 3.570000 24.750000 # H TIP3
318 122 2 0.417000 9.171000 3.909000 24.018999 # H TIP3
319 123 4 -0.834000 3.320000 1.439000 3.693000 # O TIP3
320 123 2 0.417000 3.018000 1.263000 2.795000 # H TIP3
321 123 2 0.417000 4.218000 1.737000 3.533000 # H TIP3
322 124 4 -0.834000 16.096001 8.405000 10.628000 # O TIP3
323 124 2 0.417000 16.084999 9.390000 10.715000 # H TIP3
324 124 2 0.417000 16.077000 8.348000 9.621000 # H TIP3
325 125 4 -0.834000 8.378000 22.836000 14.074000 # O TIP3
326 125 2 0.417000 9.127000 23.084999 13.478000 # H TIP3
327 125 2 0.417000 7.806000 23.652000 14.112000 # H TIP3
328 126 4 -0.834000 18.479000 3.089000 1.378000 # O TIP3
329 126 2 0.417000 17.535999 3.208000 1.574000 # H TIP3
330 126 2 0.417000 18.601999 2.140000 1.197000 # H TIP3
331 127 4 -0.834000 15.529000 5.982000 8.519000 # O TIP3
332 127 2 0.417000 16.398001 5.632000 8.812000 # H TIP3
333 127 2 0.417000 15.223000 5.333000 7.867000 # H TIP3
334 128 4 -0.834000 4.539000 2.605000 8.295000 # O TIP3
335 128 2 0.417000 5.460000 2.702000 8.123000 # H TIP3
336 128 2 0.417000 4.434000 1.616000 8.363000 # H TIP3
337 129 4 -0.834000 20.028000 7.080000 9.022000 # O TIP3
338 129 2 0.417000 20.674999 7.715000 9.082000 # H TIP3
339 129 2 0.417000 19.385000 7.573000 8.527000 # H TIP3
340 130 4 -0.834000 22.010000 11.028000 18.447001 # O TIP3
341 130 2 0.417000 22.719000 11.061000 17.701000 # H TIP3
342 130 2 0.417000 22.590000 11.140000 19.219999 # H TIP3
343 131 4 -0.834000 18.350000 6.978000 17.615000 # O TIP3
344 131 2 0.417000 18.415001 7.291000 16.702000 # H TIP3
345 131 2 0.417000 17.398001 7.159000 17.784000 # H TIP3
346 132 4 -0.834000 8.883000 21.580999 5.760000 # O TIP3
347 132 2 0.417000 8.705000 22.232000 6.446000 # H TIP3
348 132 2 0.417000 9.357000 22.007999 5.077000 # H TIP3
349 133 4 -0.834000 19.399000 12.364000 1.980000 # O TIP3
350 133 2 0.417000 19.715000 11.499000 1.598000 # H TIP3
351 133 2 0.417000 19.091000 12.059000 2.846000 # H TIP3
352 134 4 -0.834000 24.165001 6.819000 5.775000 # O TIP3
353 134 2 0.417000 23.867001 6.610000 4.873000 # H TIP3
354 134 2 0.417000 23.362000 7.177000 6.251000 # H TIP3
355 135 4 -0.834000 12.793000 13.364000 12.168000 # O TIP3
356 135 2 0.417000 12.787000 13.548000 11.223000 # H TIP3
357 135 2 0.417000 11.995000 13.794000 12.399000 # H TIP3
358 136 4 -0.834000 6.667000 7.547000 9.646000 # O TIP3
359 136 2 0.417000 6.103000 6.975000 10.296000 # H TIP3
360 136 2 0.417000 7.558000 7.292000 10.046000 # H TIP3
361 137 4 -0.834000 0.182000 23.403000 21.361000 # O TIP3
362 137 2 0.417000 0.301000 23.584999 22.346001 # H TIP3
363 137 2 0.417000 1.001000 22.867001 21.219999 # H TIP3
364 138 4 -0.834000 11.347000 16.007000 23.148001 # O TIP3
365 138 2 0.417000 11.779000 15.126000 23.087000 # H TIP3
366 138 2 0.417000 10.586000 15.923000 22.580999 # H TIP3
367 139 4 -0.834000 10.129000 17.485001 6.550000 # O TIP3
368 139 2 0.417000 9.231000 17.466999 6.920000 # H TIP3
369 139 2 0.417000 10.108000 16.702000 5.985000 # H TIP3
370 140 4 -0.834000 22.412001 7.606000 12.665000 # O TIP3
371 140 2 0.417000 21.851999 7.980000 13.388000 # H TIP3
372 140 2 0.417000 21.958000 6.769000 12.493000 # H TIP3
373 141 4 -0.834000 4.654000 5.717000 5.023000 # O TIP3
374 141 2 0.417000 5.059000 5.126000 4.395000 # H TIP3
375 141 2 0.417000 5.409000 5.785000 5.634000 # H TIP3
376 142 4 -0.834000 12.336000 14.905000 9.350000 # O TIP3
377 142 2 0.417000 11.849000 15.588000 8.883000 # H TIP3
378 142 2 0.417000 11.568000 14.375000 9.770000 # H TIP3
379 143 4 -0.834000 5.187000 1.699000 24.688000 # O TIP3
380 143 2 0.417000 5.496000 2.593000 24.739000 # H TIP3
381 143 2 0.417000 4.169000 1.873000 24.767000 # H TIP3
382 144 4 -0.834000 5.488000 14.255000 13.212000 # O TIP3
383 144 2 0.417000 6.279000 14.126000 13.709000 # H TIP3
384 144 2 0.417000 4.864000 13.991000 13.878000 # H TIP3
385 145 4 -0.834000 12.598000 13.158000 23.181000 # O TIP3
386 145 2 0.417000 12.169000 13.206000 24.069000 # H TIP3
387 145 2 0.417000 13.516000 13.023000 23.462999 # H TIP3
388 146 4 -0.834000 3.686000 8.353000 3.401000 # O TIP3
389 146 2 0.417000 4.494000 7.930000 3.084000 # H TIP3
390 146 2 0.417000 3.041000 7.727000 3.197000 # H TIP3
391 147 4 -0.834000 15.005000 14.526000 19.132999 # O TIP3
392 147 2 0.417000 15.742000 13.941000 19.238001 # H TIP3
393 147 2 0.417000 14.746000 14.453000 18.188000 # H TIP3
394 148 4 -0.834000 15.427000 13.899000 13.418000 # O TIP3
395 148 2 0.417000 15.598000 14.703000 13.915000 # H TIP3
396 148 2 0.417000 14.569000 14.032000 12.994000 # H TIP3
397 149 4 -0.834000 15.117000 16.341999 15.320000 # O TIP3
398 149 2 0.417000 14.190000 16.658001 15.235000 # H TIP3
399 149 2 0.417000 15.725000 17.080000 14.950000 # H TIP3
400 150 4 -0.834000 13.263000 23.513000 7.326000 # O TIP3
401 150 2 0.417000 14.083000 23.900000 7.689000 # H TIP3
402 150 2 0.417000 13.669000 22.802999 6.739000 # H TIP3
403 151 4 -0.834000 10.030000 11.441000 3.434000 # O TIP3
404 151 2 0.417000 9.274000 10.827000 3.422000 # H TIP3
405 151 2 0.417000 10.533000 11.362000 2.661000 # H TIP3
406 152 4 -0.834000 10.550000 9.544000 11.315000 # O TIP3
407 152 2 0.417000 10.055000 10.343000 11.396000 # H TIP3
408 152 2 0.417000 11.460000 9.846000 11.337000 # H TIP3
409 153 4 -0.834000 17.195999 18.038000 13.777000 # O TIP3
410 153 2 0.417000 17.492001 17.084999 13.750000 # H TIP3
411 153 2 0.417000 16.868000 18.082001 12.855000 # H TIP3
412 154 4 -0.834000 2.005000 17.796000 21.122000 # O TIP3
413 154 2 0.417000 2.773000 17.325001 21.598000 # H TIP3
414 154 2 0.417000 2.173000 18.757999 21.264999 # H TIP3
415 155 4 -0.834000 13.553000 15.240000 21.434999 # O TIP3
416 155 2 0.417000 14.103000 14.959000 20.726000 # H TIP3
417 155 2 0.417000 13.422000 14.470000 21.979000 # H TIP3
418 156 4 -0.834000 11.456000 2.350000 19.584999 # O TIP3
419 156 2 0.417000 10.731000 2.931000 19.730000 # H TIP3
420 156 2 0.417000 11.546000 1.862000 20.400999 # H TIP3
421 157 4 -0.834000 13.068000 2.914000 10.149000 # O TIP3
422 157 2 0.417000 12.803000 2.473000 9.295000 # H TIP3
423 157 2 0.417000 14.010000 2.849000 10.112000 # H TIP3
424 158 4 -0.834000 5.450000 9.067000 5.337000 # O TIP3
425 158 2 0.417000 4.722000 8.840000 4.711000 # H TIP3
426 158 2 0.417000 4.939000 8.770000 6.117000 # H TIP3
427 159 4 -0.834000 3.297000 18.771000 17.302999 # O TIP3
428 159 2 0.417000 3.913000 19.271999 17.825001 # H TIP3
429 159 2 0.417000 3.616000 18.934999 16.408001 # H TIP3
430 160 4 -0.834000 6.597000 15.954000 21.462999 # O TIP3
431 160 2 0.417000 7.157000 15.160000 21.200001 # H TIP3
432 160 2 0.417000 7.205000 16.451000 22.021000 # H TIP3
433 161 4 -0.834000 3.248000 22.875999 3.701000 # O TIP3
434 161 2 0.417000 2.662000 22.334000 4.248000 # H TIP3
435 161 2 0.417000 4.106000 22.410000 3.781000 # H TIP3
436 162 4 -0.834000 8.943000 19.607000 9.393000 # O TIP3
437 162 2 0.417000 9.890000 19.666000 9.174000 # H TIP3
438 162 2 0.417000 8.551000 19.202000 8.586000 # H TIP3
439 163 4 -0.834000 7.534000 23.313000 22.010000 # O TIP3
440 163 2 0.417000 7.309000 22.777000 22.738001 # H TIP3
441 163 2 0.417000 6.697000 23.403000 21.532000 # H TIP3
442 164 4 -0.834000 13.340000 13.560000 16.476999 # O TIP3
443 164 2 0.417000 13.400000 13.568000 15.542000 # H TIP3
444 164 2 0.417000 12.852000 14.406000 16.632999 # H TIP3
445 165 4 -0.834000 8.344000 7.845000 20.429001 # O TIP3
446 165 2 0.417000 8.479000 8.292000 21.236000 # H TIP3
447 165 2 0.417000 9.102000 8.059000 19.900000 # H TIP3
448 166 4 -0.834000 21.892000 9.490000 2.954000 # O TIP3
449 166 2 0.417000 22.662001 8.965000 3.007000 # H TIP3
450 166 2 0.417000 21.278999 8.910000 2.558000 # H TIP3
451 167 4 -0.834000 6.901000 21.556999 9.326000 # O TIP3
452 167 2 0.417000 7.410000 20.743999 9.384000 # H TIP3
453 167 2 0.417000 7.474000 22.077000 8.759000 # H TIP3
454 168 4 -0.834000 16.261000 21.789000 22.152000 # O TIP3
455 168 2 0.417000 16.684000 20.872999 21.878000 # H TIP3
456 168 2 0.417000 16.788000 22.010000 22.872999 # H TIP3
457 169 4 -0.834000 5.596000 23.879999 18.761999 # O TIP3
458 169 2 0.417000 5.727000 24.761999 19.184999 # H TIP3
459 169 2 0.417000 6.504000 23.604000 18.431000 # H TIP3
460 170 4 -0.834000 14.403000 7.815000 15.212000 # O TIP3
461 170 2 0.417000 13.532000 8.206000 14.911000 # H TIP3
462 170 2 0.417000 14.885000 7.681000 14.373000 # H TIP3
463 171 4 -0.834000 6.857000 11.138000 6.829000 # O TIP3
464 171 2 0.417000 6.107000 11.750000 6.800000 # H TIP3
465 171 2 0.417000 6.480000 10.387000 6.353000 # H TIP3
466 172 4 -0.834000 10.309000 21.500000 11.481000 # O TIP3
467 172 2 0.417000 11.014000 20.927999 11.185000 # H TIP3
468 172 2 0.417000 9.595000 20.961000 11.183000 # H TIP3
469 173 4 -0.834000 13.235000 22.943001 15.633000 # O TIP3
470 173 2 0.417000 12.613000 22.525000 16.194000 # H TIP3
471 173 2 0.417000 14.027000 22.981001 16.180000 # H TIP3
472 174 4 -0.834000 13.574000 24.360001 24.620001 # O TIP3
473 174 2 0.417000 14.165000 24.812000 23.959000 # H TIP3
474 174 2 0.417000 13.802000 23.408001 24.433001 # H TIP3
475 175 4 -0.834000 6.818000 20.066000 20.150000 # O TIP3
476 175 2 0.417000 7.686000 20.066999 20.625999 # H TIP3
477 175 2 0.417000 6.969000 19.868999 19.212000 # H TIP3
478 176 4 -0.834000 7.975000 20.030001 22.745001 # O TIP3
479 176 2 0.417000 8.632000 20.653999 22.434999 # H TIP3
480 176 2 0.417000 7.441000 20.490000 23.500999 # H TIP3
481 177 4 -0.834000 12.113000 0.921000 4.942000 # O TIP3
482 177 2 0.417000 12.819000 0.635000 5.562000 # H TIP3
483 177 2 0.417000 11.814000 1.896000 5.223000 # H TIP3
484 178 4 -0.834000 9.197000 4.375000 15.964000 # O TIP3
485 178 2 0.417000 9.163000 3.590000 15.387000 # H TIP3
486 178 2 0.417000 8.516000 4.167000 16.604000 # H TIP3
487 179 4 -0.834000 2.421000 3.775000 5.058000 # O TIP3
488 179 2 0.417000 2.684000 2.934000 4.652000 # H TIP3
489 179 2 0.417000 3.219000 4.340000 5.048000 # H TIP3
490 180 4 -0.834000 18.374001 6.571000 24.304001 # O TIP3
491 180 2 0.417000 17.629999 6.825000 23.709999 # H TIP3
492 180 2 0.417000 17.973000 5.831000 24.860001 # H TIP3
493 181 4 -0.834000 6.794000 6.875000 22.997000 # O TIP3
494 181 2 0.417000 7.166000 7.815000 23.093000 # H TIP3
495 181 2 0.417000 5.834000 7.029000 23.035999 # H TIP3
496 182 4 -0.834000 11.518000 2.141000 14.835000 # O TIP3
497 182 2 0.417000 11.356000 2.769000 14.101000 # H TIP3
498 182 2 0.417000 12.345000 1.727000 14.583000 # H TIP3
499 183 4 -0.834000 3.174000 1.584000 16.976000 # O TIP3
500 183 2 0.417000 2.370000 2.077000 16.809999 # H TIP3
501 183 2 0.417000 3.270000 0.961000 16.252001 # H TIP3
502 184 4 -0.834000 19.819000 1.185000 6.421000 # O TIP3
503 184 2 0.417000 20.354000 1.643000 5.752000 # H TIP3
504 184 2 0.417000 19.767000 0.232000 6.099000 # H TIP3
505 185 4 -0.834000 10.848000 10.071000 18.631001 # O TIP3
506 185 2 0.417000 10.345000 10.477000 17.907000 # H TIP3
507 185 2 0.417000 11.663000 10.551000 18.638000 # H TIP3
508 186 4 -0.834000 12.069000 8.766000 23.082001 # O TIP3
509 186 2 0.417000 12.023000 9.290000 23.888000 # H TIP3
510 186 2 0.417000 11.590000 7.956000 23.400000 # H TIP3
511 187 4 -0.834000 17.931000 14.372000 11.594000 # O TIP3
512 187 2 0.417000 17.010000 14.424000 11.287000 # H TIP3
513 187 2 0.417000 17.926001 14.956000 12.399000 # H TIP3
514 188 4 -0.834000 2.509000 3.505000 12.910000 # O TIP3
515 188 2 0.417000 2.114000 4.138000 12.315000 # H TIP3
516 188 2 0.417000 2.715000 2.712000 12.383000 # H TIP3
517 189 4 -0.834000 14.354000 1.352000 14.004000 # O TIP3
518 189 2 0.417000 14.694000 0.623000 14.565000 # H TIP3
519 189 2 0.417000 14.573000 2.195000 14.426000 # H TIP3
520 190 4 -0.834000 14.578000 23.489000 17.850000 # O TIP3
521 190 2 0.417000 15.476000 23.267000 17.861000 # H TIP3
522 190 2 0.417000 14.359000 23.483999 18.771000 # H TIP3