ITEM: TIMESTEP
0
ITEM: NUMBER OF ATOMS
1356
ITEM: BOX BOUNDS pp pp pp
2.7050000000000002e-01 2.5270499999999998e+01
-3.3449899999999999e-01 2.4665500999999999e+01
-2.5999899999999998e-01 2.4740000999999999e+01
ITEM: ATOMS id type xs ys zs
381 2 0.16577 0.0791673 0.00175436
1349 1 0.180442 0.0771896 0.0773607
105 2 0.377018 0.0806567 0.0742312
549 2 0.878591 0.0754099 0.0873034
1234 4 0.0679786 0.171782 0.0544852
1236 2 0.0594325 0.14099 0.0755757
1235 2 0.100286 0.160255 0.0374746
316 4 0.341424 0.155804 0.000103127
1120 4 0.627939 0.145369 0.0801272
1122 2 0.596922 0.122934 0.0808788
329 2 0.68816 0.143707 0.0708667
328 4 0.726068 0.138637 0.0690766
330 2 0.729832 0.10076 0.0649351
547 4 0.893654 0.103536 0.0661369
548 2 0.886972 0.092469 0.0300974
1345 3 0.958453 0.171678 0.0687853
35 2 0.0709457 0.241645 0.0858462
525 2 0.194859 0.251422 0.0709081
642 2 0.259309 0.190638 0.0425235
640 4 0.284872 0.20268 0.0683586
641 2 0.318446 0.19243 0.0530693
61 4 0.42487 0.233974 0.0561383
62 2 0.431744 0.205948 0.0813034
63 2 0.415226 0.264905 0.0765404
492 2 0.713245 0.25257 0.00198036
859 4 0.763149 0.246702 0.0809279
860 2 0.751492 0.21033 0.0782559
36 2 0.0276168 0.281044 0.065916
1264 4 0.129168 0.343473 0.0440597
1265 2 0.0924943 0.332472 0.0440369
1266 2 0.150314 0.3197 0.0653591
523 4 0.203679 0.285977 0.0848422
87 2 0.580216 0.280485 0.0771981
1060 4 0.790272 0.35118 0.0554648
1061 2 0.779201 0.314791 0.0598492
980 2 0.835502 0.353338 0.00374135
882 2 0.948886 0.321303 0.0805494
135 2 0.0694455 0.42704 0.00551252
581 2 0.25199 0.447709 0.0807147
1174 4 0.239171 0.404893 0.0366745
1175 2 0.265824 0.377726 0.0324857
1176 2 0.207108 0.389752 0.0222294
1062 2 0.758006 0.371611 0.0581919
881 2 0.981238 0.373907 0.0719738
1210 4 0.0282687 0.502874 0.0522195
1211 2 0.0130023 0.483312 0.0230604
1212 2 0.0449551 0.478543 0.0766238
582 2 0.270049 0.505508 0.077766
830 2 0.342929 0.49263 0.00371354
956 2 0.686449 0.538731 0.0741104
349 4 0.763752 0.510058 0.0900638
350 2 0.779232 0.478099 0.0757475
14 2 0.134163 0.631061 0.0564352
1051 4 0.372279 0.590924 0.0815624
1052 2 0.409649 0.583635 0.0775277
550 4 0.466028 0.560395 0.0611109
551 2 0.488282 0.551032 0.0908272
552 2 0.48894 0.567892 0.031365
301 4 0.595185 0.62156 0.0609346
303 2 0.563258 0.609747 0.0784594
957 2 0.634177 0.574248 0.075053
961 4 0.81078 0.604824 0.0587207
963 2 0.794767 0.57357 0.0739766
962 2 0.848144 0.601926 0.0665629
13 4 0.147929 0.664635 0.0686535
15 2 0.165862 0.678731 0.0379016
302 2 0.596873 0.659413 0.0664411
605 2 0.566665 0.652028 0.000738164
1102 4 0.750369 0.698656 0.0689259
1103 2 0.743736 0.694684 0.0314265
1104 2 0.784301 0.68174 0.0742576
257 2 0.280118 0.80478 0.0661404
1008 2 0.47391 0.795501 0.0676849
160 4 0.0547677 0.899412 0.0543678
161 2 0.0426188 0.866502 0.0697081
122 2 0.211459 0.897703 0.0841036
162 2 0.0435028 0.926816 0.0786185
1009 4 0.661796 0.967781 0.0753256
1010 2 0.695076 0.974799 0.0577438
1011 2 0.63714 0.993596 0.0614834
319 4 0.12043 0.0822798 0.157309
320 2 0.112752 0.0623751 0.125516
321 2 0.157332 0.0862497 0.147903
1278 2 0.252387 0.0254092 0.152949
1276 4 0.290353 0.0255956 0.147996
1277 2 0.294837 0.0294611 0.110169
103 4 0.402406 0.0583409 0.0922158
104 2 0.39915 0.0657746 0.129634
96 2 0.516178 0.0773031 0.150601
94 4 0.549737 0.0905078 0.137742
1177 4 0.238474 0.170855 0.162594
1178 2 0.254262 0.16802 0.127828
95 2 0.551267 0.127375 0.14796
1121 2 0.620693 0.173111 0.105501
670 4 0.689448 0.150477 0.180656
671 2 0.715985 0.150325 0.153056
655 4 0.439615 0.182401 0.149525
657 2 0.414305 0.193866 0.175868
656 2 0.474917 0.188922 0.16284
667 4 0.541353 0.196334 0.170407
669 2 0.556397 0.228109 0.155241
85 4 0.602846 0.269137 0.105922
861 2 0.764596 0.255352 0.118198
58 4 0.894345 0.260673 0.157256
59 2 0.857365 0.259306 0.167086
60 2 0.897034 0.238726 0.125998
34 4 0.0550453 0.275904 0.0921308
1280 2 0.0401959 0.297595 0.176084
388 4 0.142531 0.34849 0.146812
389 2 0.171671 0.328687 0.131823
390 2 0.112003 0.32592 0.141854
524 2 0.240651 0.280981 0.0934512
53 2 0.427309 0.349393 0.0923876
52 4 0.406977 0.319572 0.105168
54 2 0.402361 0.32614 0.142605
219 2 0.507751 0.358749 0.0934737
86 2 0.63606 0.287942 0.102895
880 4 0.958894 0.354683 0.096411
166 4 0.0811391 0.437211 0.114774
167 2 0.0741024 0.441563 0.152157
168 2 0.105565 0.407779 0.11302
305 2 0.285149 0.426091 0.164896
404 2 0.361059 0.444938 0.150139
217 4 0.486494 0.389481 0.101819
218 2 0.506301 0.407483 0.129197
448 4 0.865252 0.39443 0.129065
449 2 0.899075 0.376549 0.127582
450 2 0.839641 0.372601 0.110801
149 2 0.216921 0.530299 0.159192
580 4 0.267538 0.475716 0.101686
403 4 0.383118 0.476231 0.149775
405 2 0.411371 0.469163 0.12492
351 2 0.749928 0.500855 0.124562
883 4 0.892687 0.500751 0.138377
884 2 0.864964 0.524182 0.150559
885 2 0.88067 0.464436 0.140061
1328 2 0.0773294 0.592052 0.164592
1327 4 0.109614 0.575781 0.151982
1329 2 0.0992063 0.54859 0.127117
1053 2 0.358521 0.559985 0.0994345
1350 1 0.508649 0.580695 0.0998875
17 2 0.628636 0.584852 0.163243
955 4 0.654228 0.547045 0.0930494
240 2 0.754741 0.629951 0.167542
825 2 0.948356 0.627694 0.157092
77 2 0.0973619 0.716482 0.0924605
1251 2 0.200275 0.642305 0.129619
1249 4 0.230886 0.65768 0.146723
1308 2 0.356053 0.670545 0.0919997
1306 4 0.334017 0.701205 0.0983503
1307 2 0.306526 0.687186 0.121015
281 2 0.558661 0.714986 0.167268
238 4 0.725565 0.654557 0.164486
239 2 0.731806 0.673374 0.13173
76 4 0.0818656 0.748902 0.105682
78 2 0.107892 0.776309 0.0995616
1229 2 0.17486 0.77487 0.161212
1228 4 0.182663 0.775064 0.123728
1230 2 0.196701 0.740572 0.114827
256 4 0.308662 0.802949 0.0915933
258 2 0.320966 0.766697 0.0909687
989 2 0.295181 0.78932 0.16347
609 2 0.454553 0.77933 0.167228
282 2 0.541132 0.757044 0.12554
1006 4 0.484791 0.801463 0.103907
280 4 0.571042 0.744001 0.14557
624 2 0.609221 0.780337 0.178682
745 4 0.689045 0.787117 0.106697
746 2 0.696418 0.751655 0.0942865
747 2 0.677466 0.784125 0.14307
1114 4 0.976534 0.768447 0.158625
1115 2 0.951663 0.786981 0.136176
1116 2 0.985032 0.73507 0.1419
121 4 0.243534 0.900461 0.10483
123 2 0.264649 0.868863 0.100172
165 2 0.355584 0.848842 0.112262
163 4 0.372405 0.872137 0.137568
164 2 0.376543 0.905579 0.119387
181 4 0.531311 0.891974 0.128586
1007 2 0.500239 0.836459 0.105525
183 2 0.568264 0.901969 0.129339
799 4 0.75851 0.865321 0.121766
800 2 0.784089 0.845302 0.142037
801 2 0.734388 0.840008 0.106166
871 4 0.892693 0.860753 0.131137
872 2 0.876281 0.864621 0.0967623
873 2 0.866261 0.846663 0.154987
629 2 0.924976 0.906801 0.158958
169 4 0.0242223 0.961491 0.127471
170 2 0.0589697 0.951116 0.139757
171 2 0.00393386 0.964721 0.15978
433 4 0.112362 0.926762 0.161258
435 2 0.149341 0.917714 0.157172
734 2 0.396404 0.995369 0.0932659
733 4 0.409231 0.960963 0.104113
735 2 0.446997 0.967105 0.105509
182 2 0.513636 0.922734 0.142987
178 4 0.628054 0.915133 0.160831
180 2 0.647328 0.931838 0.132275
748 4 0.741492 0.961055 0.169782
749 2 0.7486 0.931454 0.14656
628 4 0.937569 0.939625 0.174123
630 2 0.940717 0.96263 0.143679
1330 4 0.33851 0.0480866 0.251868
1331 2 0.307285 0.0359402 0.233336
1332 2 0.328732 0.0823963 0.265768
481 4 0.481689 0.0537571 0.203406
482 2 0.49962 0.0419049 0.235092
483 2 0.458513 0.0820214 0.214808
1293 2 0.611458 0.0508942 0.242222
1291 4 0.643909 0.0672107 0.254333
1292 2 0.672726 0.0488848 0.237022
502 4 0.778287 0.0630835 0.266277
503 2 0.800375 0.0841478 0.24316
504 2 0.782503 0.0269137 0.254447
1159 4 0.941224 0.0871479 0.197438
1160 2 0.930161 0.0511405 0.190579
1161 2 0.967415 0.0848535 0.225273
487 4 0.0872772 0.159296 0.214785
488 2 0.0993609 0.129235 0.194381
777 2 0.273183 0.170662 0.259767
1179 2 0.262114 0.153083 0.18691
775 4 0.301509 0.155792 0.238731
776 2 0.330274 0.180978 0.240774
672 2 0.680816 0.114043 0.188658
1144 4 0.835834 0.121983 0.206392
1145 2 0.837826 0.15543 0.22492
1146 2 0.870397 0.119517 0.190104
373 4 0.176946 0.235135 0.209478
489 2 0.115337 0.185282 0.212955
374 2 0.196139 0.212404 0.185376
375 2 0.202332 0.242391 0.237207
772 4 0.392988 0.235063 0.238048
774 2 0.421022 0.229419 0.263508
668 2 0.544237 0.199945 0.208415
244 4 0.519664 0.187348 0.270918
208 4 0.700428 0.254602 0.236226
210 2 0.685857 0.220382 0.227136
1047 2 0.765029 0.255138 0.208407
787 4 0.854373 0.206399 0.25933
788 2 0.851021 0.244526 0.258316
1274 2 0.0428894 0.362768 0.271025
1279 4 0.0417137 0.295627 0.214291
1281 2 0.00731539 0.284111 0.226543
426 2 0.189007 0.361884 0.257369
773 2 0.393669 0.272537 0.230224
25 4 0.4093 0.363218 0.211228
209 2 0.680981 0.281542 0.2172
863 2 0.695803 0.34261 0.196092
1352 1 0.695975 0.317032 0.225598
1045 4 0.783552 0.276566 0.182644
1046 2 0.763375 0.308474 0.189031
862 4 0.729929 0.359969 0.196319
808 4 0.859588 0.342539 0.254849
810 2 0.840152 0.341428 0.22188
352 4 0.946076 0.282454 0.239733
353 2 0.930657 0.276908 0.205129
354 2 0.919814 0.303749 0.257701
425 2 0.179449 0.367377 0.197576
424 4 0.203361 0.377756 0.22562
465 2 0.250331 0.427879 0.264224
304 4 0.306633 0.402097 0.185601
306 2 0.281578 0.376937 0.199926
26 2 0.428674 0.370814 0.243368
27 2 0.377453 0.384471 0.211253
720 2 0.53735 0.40305 0.215816
718 4 0.552204 0.417943 0.183823
719 2 0.586572 0.431427 0.19397
864 2 0.723989 0.397696 0.193602
809 2 0.861951 0.379996 0.26242
685 4 0.113871 0.459558 0.250264
686 2 0.14397 0.455001 0.227042
687 2 0.111948 0.496953 0.258258
148 4 0.206773 0.537617 0.195378
70 4 0.346177 0.533775 0.222304
71 2 0.314816 0.512389 0.227314
72 2 0.364498 0.515663 0.19398
574 4 0.477038 0.512288 0.237316
575 2 0.458657 0.492541 0.210148
576 2 0.504128 0.488336 0.249905
892 4 0.706354 0.507786 0.202092
893 2 0.680492 0.534461 0.192839
894 2 0.707303 0.505957 0.240324
834 2 0.844408 0.473187 0.263545
150 2 0.1832 0.567761 0.194128
1240 4 0.204142 0.634628 0.251867
1242 2 0.193257 0.602772 0.270108
187 4 0.426926 0.601137 0.239681
188 2 0.392899 0.58846 0.227538
189 2 0.448897 0.569829 0.237922
767 2 0.616842 0.610202 0.261866
1256 2 0.553829 0.632824 0.204721
16 4 0.637707 0.60299 0.195719
18 2 0.66435 0.628527 0.185523
314 2 0.81737 0.571211 0.215942
313 4 0.828956 0.591261 0.185451
315 2 0.858138 0.613448 0.196501
1241 2 0.184254 0.663391 0.26746
1250 2 0.22687 0.651182 0.184242
367 4 0.394854 0.714257 0.272022
369 2 0.398974 0.680955 0.253584
1255 4 0.531888 0.658134 0.223269
1257 2 0.497249 0.641838 0.222539
753 2 0.740702 0.665638 0.244509
311 2 0.814425 0.705273 0.258992
312 2 0.87284 0.72431 0.261663
823 4 0.940984 0.655164 0.182724
824 2 0.966774 0.65305 0.210944
285 2 0.213201 0.816161 0.218734
988 4 0.291578 0.791235 0.20154
1067 2 0.290165 0.752816 0.254612
608 2 0.424212 0.763196 0.218343
607 4 0.453165 0.784489 0.205141
622 4 0.631861 0.800751 0.201849
674 2 0.647581 0.753821 0.253217
310 4 0.838418 0.732645 0.247115
567 2 0.827377 0.789157 0.207568
1322 2 0.0557461 0.821246 0.201039
1321 4 0.0812943 0.84663 0.214035
434 2 0.0966586 0.898996 0.182433
283 4 0.177674 0.821305 0.23205
284 2 0.177372 0.854675 0.250821
1323 2 0.115496 0.829739 0.217344
346 4 0.353038 0.878036 0.240759
347 2 0.336604 0.901446 0.266213
348 2 0.34516 0.892515 0.206201
990 2 0.310377 0.823081 0.211461
1347 3 0.433212 0.900111 0.204126
1261 4 0.520359 0.831963 0.271037
1263 2 0.513541 0.819367 0.235529
623 2 0.629698 0.836791 0.189106
565 4 0.824765 0.825424 0.195572
566 2 0.824493 0.845157 0.228382
1150 4 0.941574 0.895307 0.269519
179 2 0.640424 0.931686 0.193064
750 2 0.726161 0.946807 0.201844
1111 4 0.638747 0.965936 0.260344
1152 2 0.945334 0.911347 0.234956
336 2 0.164912 0.0823752 0.343796
1348 1 0.284512 0.0358227 0.350882
562 4 0.424885 0.00630039 0.320091
959 2 0.438603 0.0667824 0.328688
1113 2 0.646162 0.000732603 0.274493
870 2 0.744486 0.0806478 0.318697
1198 4 0.0185013 0.127926 0.293649
1199 2 0.0493037 0.138435 0.273481
334 4 0.171733 0.11935 0.351028
335 2 0.206489 0.124642 0.335861
958 4 0.445471 0.103343 0.337749
960 2 0.410153 0.117989 0.335716
245 2 0.489816 0.171057 0.288516
241 4 0.60135 0.141912 0.306679
242 2 0.609314 0.123813 0.339465
243 2 0.62327 0.123812 0.281031
246 2 0.551049 0.173369 0.287815
868 4 0.728293 0.0951088 0.350235
869 2 0.733458 0.133005 0.348447
1200 2 0.990512 0.152444 0.284624
173 2 0.0889206 0.261343 0.277984
172 4 0.100077 0.264012 0.314513
853 4 0.251779 0.216936 0.30748
855 2 0.236325 0.242915 0.33098
841 4 0.344604 0.182159 0.361966
854 2 0.283676 0.20466 0.324739
331 4 0.608074 0.250565 0.351944
333 2 0.598993 0.226611 0.323488
332 2 0.644434 0.242398 0.360734
858 2 0.723132 0.204804 0.311025
856 4 0.736009 0.196084 0.346013
857 2 0.760276 0.224257 0.355143
789 2 0.874767 0.197292 0.290429
1209 2 0.0197068 0.321785 0.348275
106 4 0.171256 0.334153 0.32397
108 2 0.146646 0.350339 0.34843
174 2 0.128065 0.290131 0.31383
107 2 0.204041 0.331306 0.343542
1012 4 0.544846 0.323607 0.281299
1014 2 0.547151 0.359495 0.294441
1013 2 0.566623 0.300577 0.302778
339 2 0.763013 0.311008 0.351562
1273 4 0.0507615 0.38576 0.300612
1275 2 0.0723503 0.413459 0.285359
21 2 0.0762009 0.383032 0.36133
97 4 0.344254 0.438818 0.361832
98 2 0.318054 0.445282 0.33467
220 4 0.436016 0.400809 0.326996
221 2 0.404331 0.42075 0.335021
222 2 0.428955 0.365248 0.339306
583 4 0.524266 0.43577 0.295072
584 2 0.490905 0.423413 0.309223
585 2 0.545457 0.447612 0.324681
1126 4 0.648842 0.399372 0.317936
1127 2 0.641948 0.372617 0.291429
1128 2 0.684798 0.409712 0.309795
976 4 0.762694 0.406319 0.315718
977 2 0.763986 0.384586 0.284222
978 2 0.79884 0.417113 0.322271
832 4 0.865052 0.442428 0.273221
1194 2 0.0558462 0.532115 0.32181
463 4 0.262021 0.457186 0.285913
464 2 0.235135 0.483941 0.28069
973 4 0.708642 0.527027 0.305606
974 2 0.712198 0.516893 0.342356
814 4 0.808736 0.540396 0.278528
815 2 0.773576 0.526886 0.285402
833 2 0.89683 0.454848 0.290595
1192 4 0.0792619 0.550848 0.298004
1193 2 0.099979 0.575547 0.318662
154 4 0.196499 0.568616 0.327203
155 2 0.230521 0.554133 0.337141
156 2 0.185741 0.592743 0.354918
1295 2 0.272668 0.603813 0.289034
1269 2 0.328722 0.631618 0.355809
1294 4 0.301109 0.590886 0.311169
1296 2 0.320604 0.566644 0.288848
377 2 0.467128 0.632802 0.361941
722 2 0.59461 0.58818 0.343653
766 4 0.618952 0.62252 0.298057
975 2 0.678803 0.551002 0.304672
696 2 0.792574 0.632896 0.347804
816 2 0.816109 0.564726 0.307157
694 4 0.823701 0.611365 0.353591
67 4 0.160383 0.723729 0.294991
68 2 0.123025 0.725183 0.303251
1068 2 0.256369 0.715336 0.288658
368 2 0.358392 0.714561 0.283703
617 2 0.522449 0.709598 0.280663
768 2 0.630533 0.658759 0.293745
752 2 0.722225 0.692288 0.295543
751 4 0.752364 0.674644 0.279848
695 2 0.852491 0.636564 0.352142
907 4 0.920248 0.681608 0.341771
908 2 0.933923 0.712194 0.360304
909 2 0.950141 0.662159 0.327838
709 4 0.0553914 0.742934 0.341155
710 2 0.0232926 0.755333 0.324365
711 2 0.0704972 0.772704 0.359905
69 2 0.169327 0.759142 0.283506
438 2 0.324831 0.779047 0.358331
1066 4 0.290464 0.732694 0.287185
616 4 0.502257 0.731033 0.305134
618 2 0.467617 0.73091 0.288823
1262 2 0.531797 0.800057 0.288844
802 4 0.634748 0.814778 0.362883
673 4 0.655258 0.730982 0.282973
675 2 0.659777 0.754721 0.312672
660 2 0.827751 0.768754 0.350588
1219 4 0.173025 0.896616 0.297045
1221 2 0.199316 0.906376 0.323111
453 2 0.284018 0.899872 0.361815
611 2 0.521652 0.884227 0.35658
803 2 0.640522 0.851648 0.354324
941 2 0.781867 0.903228 0.33426
940 4 0.754235 0.90859 0.360215
1078 4 0.860706 0.85001 0.332049
1080 2 0.888794 0.867063 0.312397
1220 2 0.141447 0.915684 0.307305
184 4 0.319443 0.946836 0.308227
185 2 0.348975 0.97006 0.315606
186 2 0.293487 0.974846 0.310996
564 2 0.406777 0.998126 0.352821
563 2 0.457152 0.985693 0.319698
400 4 0.521008 0.948819 0.304901
402 2 0.536596 0.923624 0.280649
401 2 0.549887 0.970664 0.317339
931 4 0.644827 0.926004 0.351644
933 2 0.682996 0.927217 0.354415
1112 2 0.641091 0.942739 0.290715
1081 4 0.944007 0.944599 0.35693
1151 2 0.94634 0.922269 0.296283
1191 2 0.25286 0.00392478 0.403183
1190 2 0.289244 0.0110925 0.448008
570 2 0.392058 0.00131478 0.434797
952 4 0.616879 0.0853971 0.396035
954 2 0.604117 0.0640929 0.425176
953 2 0.654746 0.0797504 0.39564
1032 2 0.805616 0.0758922 0.379729
1030 4 0.830431 0.063562 0.406151
197 2 0.00826042 0.161555 0.429807
111 2 0.141433 0.171505 0.382782
843 2 0.340866 0.165104 0.396042
421 4 0.507719 0.133117 0.414595
422 2 0.493784 0.11765 0.382462
423 2 0.545641 0.127893 0.413839
1031 2 0.850953 0.0941059 0.416729
895 4 0.87023 0.153173 0.427415
896 2 0.84367 0.17302 0.446563
897 2 0.888594 0.178605 0.405462
196 4 0.0218498 0.19734 0.428925
198 2 0.0565184 0.195287 0.412805
1208 2 0.00396753 0.270373 0.375037
109 4 0.12359 0.201441 0.398639
110 2 0.116023 0.225008 0.369428
1283 2 0.169788 0.229459 0.445271
842 2 0.367787 0.212459 0.365198
972 2 0.434148 0.264085 0.392
727 4 0.478178 0.228468 0.423965
728 2 0.484347 0.190925 0.419676
729 2 0.513037 0.243861 0.427695
1002 2 0.702531 0.188251 0.431849
1029 2 0.798155 0.262064 0.434088
790 4 0.918895 0.218511 0.370711
791 2 0.953095 0.201843 0.375016
792 2 0.923985 0.256219 0.374971
20 2 0.0755571 0.342963 0.40835
1207 4 0.00121262 0.308356 0.378993
358 4 0.254734 0.308374 0.397896
359 2 0.231743 0.290811 0.422975
360 2 0.289821 0.308382 0.413222
970 4 0.40464 0.276429 0.370954
971 2 0.382311 0.298639 0.392728
322 4 0.628092 0.351845 0.437108
324 2 0.632028 0.342523 0.400181
337 4 0.787745 0.295523 0.376352
338 2 0.818559 0.318036 0.373247
1090 4 0.920069 0.348622 0.423102
1091 2 0.954412 0.33419 0.414253
19 4 0.0983498 0.364825 0.386705
99 2 0.326419 0.416716 0.387509
260 2 0.613366 0.450166 0.375401
323 2 0.634822 0.389517 0.438337
964 4 0.723695 0.451359 0.414025
966 2 0.724313 0.435353 0.379249
965 2 0.751389 0.433847 0.433832
877 4 0.854761 0.420809 0.387435
878 2 0.881557 0.39424 0.393921
879 2 0.830811 0.418949 0.417249
1303 4 0.0263246 0.482269 0.452612
1304 2 0.0620423 0.477031 0.439853
1305 2 0.00791505 0.495639 0.421818
754 4 0.11854 0.48826 0.414293
755 2 0.132858 0.51289 0.388713
756 2 0.148436 0.47598 0.43482
88 4 0.384627 0.529782 0.419656
89 2 0.376243 0.500876 0.39599
90 2 0.36902 0.520753 0.453433
259 4 0.587794 0.465925 0.399144
261 2 0.586639 0.50335 0.391143
688 4 0.92499 0.478485 0.451973
690 2 0.922387 0.463734 0.416737
703 4 0.134011 0.630385 0.397921
705 2 0.120285 0.632831 0.43358
1268 2 0.356774 0.603286 0.400586
378 2 0.455783 0.586968 0.398284
376 4 0.482836 0.612975 0.390683
723 2 0.541611 0.582402 0.373346
721 4 0.576833 0.567636 0.370632
131 2 0.818183 0.571462 0.419007
986 2 0.919889 0.59545 0.440734
987 2 0.975468 0.619775 0.446751
757 4 0.0118099 0.668811 0.432806
758 2 0.0443623 0.66465 0.452529
759 2 0.0177804 0.698775 0.40973
704 2 0.134327 0.66631 0.38468
1267 4 0.345735 0.638222 0.389468
1326 2 0.324122 0.684514 0.444838
817 4 0.525915 0.706339 0.405971
818 2 0.518565 0.669519 0.41347
819 2 0.534266 0.706925 0.36861
252 2 0.601853 0.715508 0.450714
251 2 0.662051 0.722974 0.440506
298 4 0.0869127 0.804597 0.441219
300 2 0.124551 0.808552 0.447022
436 4 0.346612 0.794874 0.385554
1325 2 0.32012 0.745323 0.44748
437 2 0.37888 0.804122 0.367136
1339 3 0.481385 0.78674 0.398514
804 2 0.601494 0.812804 0.381756
676 4 0.715408 0.735161 0.406436
677 2 0.708049 0.77223 0.400296
678 2 0.75244 0.731883 0.397277
992 2 0.792564 0.810567 0.451561
658 4 0.822076 0.746697 0.381365
659 2 0.852903 0.751755 0.403503
598 4 0.918899 0.817288 0.424185
1252 4 0.0715668 0.898564 0.395843
1253 2 0.0707881 0.863014 0.410039
1254 2 0.0482816 0.900564 0.365515
39 2 0.202199 0.851556 0.431073
451 4 0.265437 0.872727 0.381407
452 2 0.289265 0.842973 0.385004
610 4 0.526002 0.872639 0.392812
612 2 0.543518 0.902485 0.409195
942 2 0.762444 0.884373 0.388713
991 4 0.768428 0.836871 0.437723
1079 2 0.875892 0.838736 0.36534
600 2 0.940947 0.848463 0.421364
1218 2 0.102574 0.928106 0.446281
1189 4 0.255031 0.995632 0.4405
568 4 0.398573 0.972265 0.410721
569 2 0.390839 0.939321 0.428632
932 2 0.631863 0.941294 0.384265
943 4 0.597363 0.947451 0.45427
1108 4 0.863924 0.939161 0.416128
1109 2 0.832039 0.941042 0.395015
1110 2 0.85106 0.934566 0.451896
1082 2 0.971971 0.945549 0.383066
1083 2 0.911661 0.952561 0.375807
1164 2 0.0777421 0.0364387 0.477057
1162 4 0.111696 0.0516051 0.486171
1163 2 0.136767 0.0373917 0.460963
631 4 0.428982 0.0841005 0.475375
769 4 0.712571 0.0387138 0.469308
771 2 0.731692 0.0716616 0.465462
770 2 0.734219 0.0149576 0.490117
652 4 0.95861 0.0812098 0.496347
653 2 0.9343 0.0704876 0.523916
654 2 0.958506 0.0539985 0.469412
515 2 0.0753249 0.175565 0.507593
514 4 0.0973576 0.15207 0.528294
516 2 0.0994575 0.119369 0.508491
205 4 0.266045 0.110084 0.541696
778 4 0.331637 0.148957 0.472864
780 2 0.306481 0.125281 0.489374
632 2 0.398389 0.104899 0.465501
633 2 0.459643 0.100656 0.459509
1001 2 0.711896 0.169301 0.489051
850 4 0.746629 0.134752 0.534355
852 2 0.774099 0.10875 0.540291
1056 2 0.920772 0.167801 0.526325
1272 2 0.0375907 0.245931 0.472545
1270 4 0.0500968 0.272262 0.497369
1282 4 0.19658 0.244304 0.468245
1284 2 0.202938 0.216649 0.493949
779 2 0.325634 0.183001 0.489325
639 2 0.542623 0.199228 0.51495
899 2 0.47106 0.233141 0.534641
637 4 0.576649 0.216418 0.518507
638 2 0.572084 0.251793 0.504588
765 2 0.692927 0.253366 0.502173
1000 4 0.71211 0.200488 0.466841
1027 4 0.805523 0.243706 0.466869
1028 2 0.775554 0.220575 0.472595
1271 2 0.0277256 0.303038 0.493091
211 4 0.150251 0.322106 0.520418
212 2 0.172552 0.299618 0.498902
213 2 0.115868 0.305566 0.51723
1036 4 0.346816 0.310419 0.455748
1037 2 0.34223 0.289087 0.487211
1038 2 0.371387 0.338275 0.465039
812 2 0.521331 0.333957 0.516854
811 4 0.548149 0.310666 0.502561
813 2 0.567903 0.330437 0.476391
763 4 0.689381 0.288023 0.518057
764 2 0.670505 0.307923 0.491343
370 4 0.871451 0.323016 0.508064
372 2 0.868454 0.285235 0.502625
1092 2 0.91065 0.33859 0.458831
572 2 0.00352899 0.451116 0.511095
115 4 0.11457 0.424902 0.538613
116 2 0.134614 0.448124 0.515701
117 2 0.127264 0.389683 0.530587
406 4 0.410554 0.393091 0.465575
407 2 0.390606 0.425589 0.469026
408 2 0.447197 0.404108 0.464202
781 4 0.509669 0.436901 0.485734
782 2 0.537478 0.435406 0.459458
1101 2 0.487431 0.401075 0.538774
835 4 0.809234 0.401733 0.474825
837 2 0.823613 0.431169 0.494643
836 2 0.83194 0.371309 0.479801
1244 2 0.0529534 0.539575 0.534034
1180 4 0.187826 0.482706 0.492847
1181 2 0.198818 0.519377 0.493462
1182 2 0.21214 0.465155 0.516653
100 4 0.351184 0.490215 0.516727
101 2 0.320113 0.472375 0.530229
783 2 0.503357 0.474416 0.490065
1033 4 0.694355 0.488203 0.533178
1034 2 0.69704 0.481753 0.495533
1035 2 0.679221 0.523288 0.535634
967 4 0.851792 0.484246 0.518343
968 2 0.841228 0.513667 0.496234
969 2 0.886469 0.476229 0.504228
689 2 0.95558 0.501346 0.454725
382 4 0.209081 0.584751 0.542163
355 4 0.501679 0.546399 0.495739
356 2 0.502941 0.555625 0.4586
357 2 0.469314 0.561209 0.509849
396 2 0.572186 0.569865 0.530083
511 4 0.709538 0.586883 0.478028
512 2 0.674856 0.58881 0.461922
513 2 0.708896 0.610181 0.508405
130 4 0.812973 0.568397 0.456815
132 2 0.775016 0.566661 0.461531
1157 2 0.837197 0.62662 0.475649
985 4 0.953199 0.591193 0.459127
1320 2 0.0815687 0.673501 0.522046
1318 4 0.0956258 0.662159 0.488286
1319 2 0.132747 0.671264 0.490547
7 4 0.193374 0.67472 0.495419
8 2 0.226038 0.691331 0.484323
9 2 0.201978 0.64118 0.51176
1324 4 0.316553 0.713578 0.468587
250 4 0.63497 0.724845 0.467508
984 2 0.825524 0.724315 0.484659
1156 4 0.849574 0.660986 0.487126
1158 2 0.877276 0.654635 0.512782
999 2 0.975076 0.661742 0.527833
299 2 0.0727574 0.792623 0.474719
411 2 0.658247 0.733727 0.524896
594 2 0.704444 0.811681 0.536962
983 2 0.799448 0.758106 0.529088
982 4 0.818735 0.760224 0.49608
995 2 0.879623 0.765255 0.537115
599 2 0.917136 0.809213 0.461571
1217 2 0.136776 0.892696 0.479302
37 4 0.180573 0.841802 0.461125
38 2 0.20425 0.844259 0.491114
466 4 0.39893 0.87641 0.464751
467 2 0.430882 0.855319 0.46519
468 2 0.368592 0.853856 0.458677
40 4 0.592796 0.847399 0.525072
41 2 0.559942 0.848034 0.544725
42 2 0.584312 0.858713 0.489492
592 4 0.693202 0.845855 0.523858
593 2 0.655143 0.84349 0.520414
1316 2 0.713107 0.904677 0.513922
993 2 0.743441 0.844075 0.465824
1223 2 0.0680496 0.93066 0.525984
1222 4 0.0309952 0.930215 0.535614
1216 4 0.119999 0.927096 0.48036
50 2 0.177499 0.95736 0.516006
49 4 0.213127 0.964691 0.527958
51 2 0.229914 0.979605 0.496946
944 2 0.573814 0.961072 0.481212
945 2 0.631944 0.960294 0.464524
1315 4 0.718051 0.942641 0.513474
1317 2 0.74231 0.951382 0.541776
761 2 0.871482 0.967883 0.539826
1231 4 0.128619 0.0170528 0.59088
1232 2 0.121641 0.0270029 0.554572
1233 2 0.166146 0.0220681 0.596589
207 2 0.261367 0.0754211 0.557269
903 2 0.357486 0.0210805 0.631002
901 4 0.356683 0.059291 0.6333
902 2 0.392411 0.0721603 0.628418
498 2 0.481062 0.0814584 0.595882
517 4 0.558369 0.069019 0.575642
518 2 0.576824 0.0403166 0.593008
1024 4 0.893728 0.0494008 0.609328
1026 2 0.873614 0.0814123 0.615381
223 4 0.0674045 0.139016 0.622884
225 2 0.0754141 0.141143 0.585504
663 2 0.152477 0.170521 0.551278
206 2 0.234441 0.129953 0.550203
661 4 0.188987 0.180347 0.557316
485 2 0.358287 0.151106 0.634285
496 4 0.447995 0.0995092 0.602714
497 2 0.444805 0.123482 0.57303
519 2 0.575022 0.101584 0.586964
793 4 0.603535 0.172471 0.608364
272 2 0.806061 0.174169 0.614193
851 2 0.742185 0.15145 0.568522
271 4 0.83026 0.144576 0.612042
273 2 0.862127 0.158781 0.596272
29 2 0.0180058 0.253317 0.562763
30 2 0.000506487 0.239715 0.619711
662 2 0.188976 0.2001 0.590116
1346 3 0.310594 0.238779 0.584583
898 4 0.470443 0.200026 0.553851
900 2 0.463835 0.208121 0.590686
794 2 0.601779 0.185838 0.572528
795 2 0.576036 0.190972 0.627534
706 4 0.766951 0.237221 0.589947
707 2 0.801074 0.2538 0.595114
708 2 0.753662 0.246533 0.555268
1054 4 0.907577 0.190862 0.553895
28 4 0.987857 0.242368 0.58367
1055 2 0.938335 0.210126 0.566094
634 4 0.209139 0.36043 0.594946
635 2 0.186052 0.339813 0.57241
33 2 0.39086 0.342204 0.625553
461 2 0.532406 0.343721 0.607558
460 4 0.568002 0.332841 0.616532
462 2 0.580242 0.316007 0.584396
679 4 0.691743 0.350317 0.609018
680 2 0.654645 0.356214 0.616431
681 2 0.691106 0.32462 0.580642
1344 3 0.795642 0.361259 0.605639
371 2 0.880937 0.327403 0.544898
571 4 0.00492648 0.438686 0.547282
573 2 0.0411869 0.427784 0.552965
2 2 0.121086 0.426958 0.610785
636 2 0.187666 0.367924 0.625747
1334 2 0.254286 0.397351 0.573738
1333 4 0.282246 0.418971 0.559014
1335 2 0.31494 0.401345 0.56831
31 4 0.390269 0.376357 0.608255
32 2 0.371686 0.399624 0.632324
1100 2 0.452146 0.371628 0.578608
1099 4 0.486946 0.371146 0.562649
1098 2 0.560896 0.442925 0.563065
1020 2 0.715462 0.411636 0.617597
1018 4 0.744028 0.436155 0.610614
539 2 0.222017 0.517475 0.635349
102 2 0.369428 0.503825 0.547515
1096 4 0.574551 0.469111 0.587432
1097 2 0.597737 0.49205 0.567377
1019 2 0.729749 0.459738 0.584046
1143 2 0.824084 0.54592 0.57358
1243 4 0.0488181 0.561011 0.565489
1245 2 0.0259446 0.589467 0.553955
730 4 0.139224 0.552314 0.607859
732 2 0.10433 0.547209 0.592948
384 2 0.181213 0.57239 0.565327
383 2 0.241197 0.583394 0.562964
249 2 0.36185 0.582181 0.583881
739 4 0.285028 0.5929 0.606619
740 2 0.292986 0.629703 0.599676
247 4 0.398701 0.571792 0.583604
248 2 0.410846 0.577451 0.619471
443 2 0.52505 0.553218 0.633713
394 4 0.606884 0.568394 0.546203
395 2 0.610725 0.599158 0.568671
1003 4 0.725061 0.629559 0.57788
1005 2 0.712271 0.6184 0.6122
1004 2 0.758612 0.611396 0.574649
1141 4 0.810472 0.571953 0.598136
1142 2 0.809956 0.554617 0.63227
1148 2 0.977026 0.571363 0.622136
1147 4 0.944657 0.587356 0.634883
286 4 0.0521816 0.700607 0.569923
287 2 0.0368876 0.67587 0.594826
1214 2 0.306968 0.699022 0.547261
1213 4 0.307921 0.687709 0.583827
1215 2 0.329463 0.712719 0.60323
397 4 0.594364 0.670856 0.622161
398 2 0.557983 0.68218 0.618393
399 2 0.616554 0.693773 0.600986
410 2 0.691425 0.701368 0.563295
1137 2 0.808608 0.701768 0.626488
1136 2 0.818873 0.641403 0.63163
997 4 0.954072 0.674943 0.556998
998 2 0.9472 0.646083 0.581202
288 2 0.0316593 0.732509 0.575125
1183 4 0.201604 0.786521 0.625562
1185 2 0.199175 0.76241 0.595919
1300 4 0.515178 0.761803 0.612327
1301 2 0.491909 0.784954 0.592614
409 4 0.669787 0.732898 0.561394
919 4 0.790624 0.772225 0.612277
920 2 0.760302 0.792107 0.624574
921 2 0.819802 0.795685 0.620291
994 4 0.914604 0.770902 0.551619
996 2 0.93088 0.736823 0.557916
1184 2 0.199597 0.821814 0.610853
1237 4 0.23807 0.867053 0.546694
1239 2 0.220174 0.900858 0.548397
1238 2 0.272606 0.874389 0.561507
1286 2 0.335655 0.881575 0.623884
615 2 0.43859 0.856678 0.55926
613 4 0.471839 0.845642 0.574709
614 2 0.480472 0.873108 0.599948
1172 2 0.632483 0.901748 0.578814
1171 4 0.647287 0.905716 0.6139
934 4 0.867627 0.854043 0.624232
935 2 0.895408 0.835831 0.605193
1224 2 0.021684 0.964407 0.550111
325 4 0.324545 0.922936 0.575619
326 2 0.351084 0.934137 0.550396
327 2 0.298581 0.951074 0.575895
1173 2 0.677402 0.929071 0.610218
724 4 0.760955 0.968976 0.606193
726 2 0.795973 0.968072 0.590738
760 4 0.841571 0.946899 0.55127
762 2 0.855399 0.917321 0.571267
499 4 0.11875 0.0704689 0.684464
501 2 0.11125 0.0522476 0.651636
844 4 0.764176 0.0629876 0.682685
845 2 0.789549 0.083127 0.662273
846 2 0.730709 0.0814149 0.68016
1025 2 0.92093 0.0475958 0.636212
224 2 0.072853 0.173505 0.638595
500 2 0.0937785 0.0993606 0.687235
700 4 0.250581 0.149445 0.688891
701 2 0.239723 0.138454 0.723924
702 2 0.235409 0.123846 0.664797
691 4 0.505293 0.126062 0.712041
693 2 0.481194 0.129344 0.682469
254 2 0.630808 0.093595 0.715819
1039 4 0.678568 0.13445 0.680664
1040 2 0.656768 0.153205 0.655385
1041 2 0.69341 0.160215 0.704786
118 4 0.0846202 0.249203 0.656087
119 2 0.0740226 0.250293 0.692863
120 2 0.12285 0.250943 0.657281
199 4 0.20948 0.230451 0.647607
200 2 0.222699 0.258893 0.669568
201 2 0.215554 0.200548 0.670735
486 2 0.332609 0.186422 0.67527
484 4 0.353103 0.188034 0.642969
204 2 0.390921 0.249495 0.653216
1049 2 0.83025 0.271064 0.705329
649 4 0.948744 0.24069 0.681178